
     Program PHONON v.7.2 starts on 09Jun2025 at 03:13:49

     This program is part of the open-source Quantum ESPRESSO suite
     
     Reading input from ph.in
     
     Reading xml data from directory:
     ./tmp/Li2NH_ci.save/
     
     Atomic displacements:
     There are   12 irreducible representations
     
     Representation     1      1 modes - Phonon calculation done
     Representation     2      1 modes - Phonon calculation done
     Representation     3      1 modes - Phonon calculation done
     
     q = (    0.000000000   0.000000000   0.000000000 )
     
     **************************************************************************
     freq (    1) =      2.000000 [THz] =    66.71 [cm-1]
     freq (    2) =      6.512673 [THz] =    217.24 [cm-1]
     freq (    3) =      6.666609 [THz] =    222.37 [cm-1]
     freq (    4) =      8.587801 [THz] =    286.45 [cm-1]
     freq (    5) =      8.941641 [THz] =    298.26 [cm-1]
     freq (    6) =      11.062836 [THz] =    369.01 [cm-1]
     **************************************************************************
     
     Mode symmetry, C3v point group:
     
     Electron-phonon coupling constants
     
     Gaussian Broadening:   0.005 Ry, ngauss=   0
     DOS =  2.701 states/spin/Ry/Unit Cell at Ef=  -3.459 eV
     
     lambda( 1)=  0.121   gamma=    2.24 meV
     lambda( 2)=  0.184   gamma=    2.90 meV
     lambda( 3)=  0.295   gamma=    2.95 meV
     lambda( 4)=  0.258   gamma=    2.04 meV
     lambda( 5)=  0.224   gamma=    1.73 meV
     lambda( 6)=  0.187   gamma=    2.76 meV
     
     lambda =   0.860
     omega(log)=   352.3 K =   245.0 cm-1
     
     Estimated Allen-Dynes Tc =   175.6 K for muc =  0.10
     
     PHONON       :   5.2s CPU   5.2s WALL
     
   This run was terminated on:  09Jun2025 at 03:13:49
