
     Program PHONON v.7.2 starts on 09Jun2025 at 03:13:47

     This program is part of the open-source Quantum ESPRESSO suite
     
     Reading input from ph.in
     
     Reading xml data from directory:
     ./tmp/Li2NH_ci.save/
     
     Atomic displacements:
     There are   12 irreducible representations
     
     Representation     1      1 modes - Phonon calculation done
     Representation     2      1 modes - Phonon calculation done
     Representation     3      1 modes - Phonon calculation done
     
     q = (    0.000000000   0.000000000   0.000000000 )
     
     **************************************************************************
     freq (    1) =      2.000000 [THz] =    66.71 [cm-1]
     freq (    2) =      5.540154 [THz] =    184.80 [cm-1]
     freq (    3) =      9.917838 [THz] =    330.82 [cm-1]
     freq (    4) =      10.041581 [THz] =    334.95 [cm-1]
     freq (    5) =      11.239049 [THz] =    374.89 [cm-1]
     freq (    6) =      12.148772 [THz] =    405.23 [cm-1]
     **************************************************************************
     
     Mode symmetry, C3v point group:
     
     Electron-phonon coupling constants
     
     Gaussian Broadening:   0.005 Ry, ngauss=   0
     DOS =  2.711 states/spin/Ry/Unit Cell at Ef=  -3.448 eV
     
     lambda( 1)=  0.230   gamma=    2.48 meV
     lambda( 2)=  0.293   gamma=    1.90 meV
     lambda( 3)=  0.159   gamma=    2.62 meV
     lambda( 4)=  0.102   gamma=    2.19 meV
     lambda( 5)=  0.171   gamma=    1.88 meV
     lambda( 6)=  0.272   gamma=    2.96 meV
     
     lambda =   0.810
     omega(log)=   366.7 K =   255.0 cm-1
     
     Estimated Allen-Dynes Tc =   172.1 K for muc =  0.10
     
     PHONON       :   6.6s CPU   6.6s WALL
     
   This run was terminated on:  09Jun2025 at 03:13:47
