
     Program PWSCF v.7.2 starts on 09Jun2025 at 03:13:50
     This program is part of the open-source Quantum ESPRESSO suite

     Parallel version (MPI), running on     1 processors

     Reading input from scf.in

     Current dimensions of program PWSCF are:
     Max number of different atomic species (ntypx) = 10
     Max number of k-points (npk) =  40000
     Max angular momentum in pseudopotentials (lmaxx) =  4

     Subspace diagonalization in iterative solution of the eigenvalue problem:
     a serial algorithm will be used

     G-vector sticks info
     --------------------
     sticks:   dense  smooth     PW     G-vecs:    dense   smooth      PW
     Sum         1043     1043    251           11421    5951   2951

     Using Slab Decomposition

     bravais-lattice index     =            0
     lattice parameter (alat)  =       6.45050  a.u.
     unit-cell volume          =     752.72  (a.u.)^3

     convergence has been achieved in   10 iterations

!    total energy              =     -123.42844175 Ry
     estimated scf accuracy    <       0.00000001 Ry

     The total energy is the sum of the following terms:
     one-electron contribution =     -86.39990923 Ry
     hartree contribution      =      -24.68568835 Ry
     xc contribution           =     -12.34284418 Ry

     Writing all to output data dir ./tmp/Li2NH_ci.save/

     init_run     :      0.31s CPU      0.42s WALL (       1 calls)
     electrons    :      1.74s CPU      1.74s WALL (       1 calls)

     Called by init_run:
     wfcinit      :      0.03s CPU      0.03s WALL (       1 calls)
     potinit      :      0.13s CPU      0.17s WALL (       1 calls)
     hinit0       :      0.13s CPU      0.19s WALL (       1 calls)

     PWSCF        :      3.15s CPU      3.15s WALL

   This run was terminated on:  09Jun2025 at 03:13:50
