
     Program PHONON v.7.2 starts on 09Jun2025 at 03:13:48

     This program is part of the open-source Quantum ESPRESSO suite
     
     Reading input from ph.in
     
     Reading xml data from directory:
     ./tmp/Li2NH_ci.save/
     
     Atomic displacements:
     There are   12 irreducible representations
     
     Representation     1      1 modes - Phonon calculation done
     Representation     2      1 modes - Phonon calculation done
     Representation     3      1 modes - Phonon calculation done
     
     q = (    0.000000000   0.000000000   0.000000000 )
     
     **************************************************************************
     freq (    1) =      2.000000 [THz] =    66.71 [cm-1]
     freq (    2) =      4.179458 [THz] =    139.41 [cm-1]
     freq (    3) =      5.694797 [THz] =    189.96 [cm-1]
     freq (    4) =      9.845705 [THz] =    328.41 [cm-1]
     freq (    5) =      11.132921 [THz] =    371.35 [cm-1]
     freq (    6) =      11.427196 [THz] =    381.17 [cm-1]
     **************************************************************************
     
     Mode symmetry, C3v point group:
     
     Electron-phonon coupling constants
     
     Gaussian Broadening:   0.005 Ry, ngauss=   0
     DOS =  2.628 states/spin/Ry/Unit Cell at Ef=  -3.764 eV
     
     lambda( 1)=  0.243   gamma=    2.73 meV
     lambda( 2)=  0.138   gamma=    2.54 meV
     lambda( 3)=  0.244   gamma=    1.59 meV
     lambda( 4)=  0.134   gamma=    2.14 meV
     lambda( 5)=  0.136   gamma=    1.46 meV
     lambda( 6)=  0.226   gamma=    1.56 meV
     
     lambda =   0.780
     omega(log)=   373.9 K =   260.0 cm-1
     
     Estimated Allen-Dynes Tc =   169.0 K for muc =  0.10
     
     PHONON       :   8.2s CPU   8.2s WALL
     
   This run was terminated on:  09Jun2025 at 03:13:48
