
     Program PHONON v.7.2 starts on 09Jun2025 at 03:13:47

     This program is part of the open-source Quantum ESPRESSO suite
     
     Reading input from ph.in
     
     Reading xml data from directory:
     ./tmp/Li2NH_ci.save/
     
     Atomic displacements:
     There are   12 irreducible representations
     
     Representation     1      1 modes - Phonon calculation done
     Representation     2      1 modes - Phonon calculation done
     Representation     3      1 modes - Phonon calculation done
     
     q = (    0.000000000   0.000000000   0.000000000 )
     
     **************************************************************************
     freq (    1) =      2.000000 [THz] =    66.71 [cm-1]
     freq (    2) =      7.522983 [THz] =    250.94 [cm-1]
     freq (    3) =      8.192874 [THz] =    273.28 [cm-1]
     freq (    4) =      10.139898 [THz] =    338.23 [cm-1]
     freq (    5) =      12.630200 [THz] =    421.29 [cm-1]
     freq (    6) =      12.850878 [THz] =    428.65 [cm-1]
     **************************************************************************
     
     Mode symmetry, C3v point group:
     
     Electron-phonon coupling constants
     
     Gaussian Broadening:   0.005 Ry, ngauss=   0
     DOS =  2.554 states/spin/Ry/Unit Cell at Ef=  -3.283 eV
     
     lambda( 1)=  0.259   gamma=    1.35 meV
     lambda( 2)=  0.106   gamma=    2.03 meV
     lambda( 3)=  0.262   gamma=    2.64 meV
     lambda( 4)=  0.198   gamma=    2.32 meV
     lambda( 5)=  0.278   gamma=    1.51 meV
     lambda( 6)=  0.298   gamma=    1.63 meV
     
     lambda =   0.840
     omega(log)=   359.5 K =   250.0 cm-1
     
     Estimated Allen-Dynes Tc =   175.0 K for muc =  0.10
     
     PHONON       :   8.6s CPU   8.6s WALL
     
   This run was terminated on:  09Jun2025 at 03:13:47
